% Model:              mtlcad_3D_model_FF37_final_sweep.mph
% Version:            COMSOL 5.0.0.244
% Date:               Dec 12 2024, 14:32
% Table:              Table 2 - Surface Integration 1 (sqrt(ewfd.Poavx^2+ewfd.Poavy^2+ewfd.Poavz^2))
% lambda (um)         freq=3.0000E15, sqrt(ewfd.Poavx^2+ewfd.Poavy^2+ewfd.Poavz^2) (W)
1.000000e-02 1.676364e+02
1.727273e-02 1.676287e+02
2.454545e-02 1.676236e+02
3.181818e-02 1.676388e+02
3.909091e-02 1.676335e+02
4.636364e-02 1.676335e+02
5.363636e-02 1.676453e+02
6.090909e-02 1.676420e+02
6.818182e-02 1.676430e+02
7.545455e-02 1.676502e+02
8.272727e-02 1.676350e+02
9.000000e-02 1.676412e+02
1.000000e-01 1.676374e+02
1.096478e-01 1.666620e+02
1.202264e-01 1.687425e+02
1.318257e-01 1.662036e+02
1.445440e-01 1.930133e+02
1.584893e-01 1.712235e+02
1.737801e-01 1.792299e+02
1.905461e-01 1.991951e+02
2.089296e-01 1.885066e+02
2.290868e-01 2.132721e+02
2.511886e-01 2.210306e+02
2.754229e-01 1.930667e+02
3.019952e-01 2.026469e+02
3.311311e-01 2.521468e+02
3.630781e-01 2.543581e+02
3.981072e-01 2.252179e+02
4.365158e-01 2.580408e+02
4.786301e-01 2.491839e+02
5.248075e-01 2.380285e+02
5.754399e-01 2.626476e+02
6.309573e-01 2.918086e+02
6.918310e-01 3.712038e+02
7.585776e-01 3.926789e+02
8.317638e-01 2.255367e+02
9.120108e-01 1.557257e+02
1.000000e+00 1.501859e+02
1.096478e+00 1.054961e+02
1.202264e+00 6.866472e+01
1.318257e+00 5.339306e+01
1.445440e+00 5.601340e+01
1.584893e+00 5.778597e+01
1.737801e+00 5.082035e+01
1.905461e+00 3.754918e+01
2.089296e+00 2.336997e+01
2.290868e+00 1.365437e+01
2.511886e+00 1.285370e+01
2.754229e+00 1.887916e+01
3.019952e+00 2.628675e+01
3.311311e+00 3.168936e+01
3.630781e+00 3.402961e+01
3.981072e+00 3.351540e+01
4.365158e+00 3.083487e+01
4.786301e+00 2.680204e+01
5.248075e+00 2.219818e+01
5.754399e+00 1.765657e+01
6.309573e+00 1.358386e+01
6.918310e+00 1.017866e+01
7.585776e+00 7.469578e+00
8.317638e+00 5.396765e+00
9.120108e+00 3.854017e+00
1.000000e+01 2.729967e+00
1.096478e+01 1.921207e+00
1.202264e+01 1.346706e+00
1.318257e+01 9.407238e-01
1.445440e+01 6.556414e-01
1.584893e+01 4.561239e-01
1.737801e+01 3.171477e-01
1.905461e+01 2.202739e-01
2.089296e+01 1.528743e-01
2.290868e+01 1.061210e-01
2.511886e+01 7.370597e-02
2.754229e+01 5.118239e-02
3.019952e+01 3.559125e-02
3.311311e+01 2.471446e-02
3.630781e+01 1.715014e-02
3.981072e+01 1.202356e-02
4.365158e+01 8.461166e-03
4.786301e+01 6.010190e-03
