% Model:              mtlcad_3D_model_FF50.mph
% Version:            COMSOL 5.0.0.244
% Date:               Jan 6 2025, 10:24
% Table:              Table 4 - Surface Integration 1 (sqrt(ewfd.Poavx^2+ewfd.Poavy^2+ewfd.Poavz^2))
% lambda (um)         freq=3.0000E15, sqrt(ewfd.Poavx^2+ewfd.Poavy^2+ewfd.Poavz^2) (W)
1.000000e-02 2.599276e+02
1.888889e-02 3.330861e+02
2.777778e-02 3.187814e+02
3.666667e-02 2.599239e+02
4.555556e-02 3.330914e+02
5.444444e-02 3.187683e+02
6.333333e-02 2.599468e+02
7.222222e-02 3.330788e+02
8.111111e-02 3.187837e+02
9.000000e-02 2.599318e+02
1.000000e-01 3.330650e+02
1.096478e-01 3.187736e+02
1.202264e-01 2.599324e+02
1.318257e-01 3.330798e+02
1.445440e-01 3.187809e+02
1.584893e-01 2.586489e+02
1.737801e-01 3.256669e+02
1.905461e-01 3.954100e+02
2.089296e-01 2.997829e+02
2.290868e-01 2.712533e+02
2.511886e-01 3.575501e+02
2.754229e-01 3.982770e+02
3.019952e-01 3.967521e+02
3.311311e-01 3.200526e+02
3.630781e-01 3.082233e+02
3.981072e-01 3.292948e+02
4.365158e-01 2.862860e+02
4.786301e-01 3.099164e+02
5.248075e-01 4.208711e+02
5.754399e-01 4.411368e+02
6.309573e-01 3.684169e+02
6.918310e-01 1.979858e+02
7.585776e-01 1.825843e+02
8.317638e-01 1.455565e+02
9.120108e-01 5.618791e+01
1.000000e+00 5.421683e+01
1.096478e+00 7.124200e+01
1.202264e+00 4.936756e+01
1.318257e+00 2.378643e+01
1.445440e+00 2.936732e+01
1.584893e+00 5.133928e+01
1.737801e+00 6.120716e+01
1.905461e+00 5.271577e+01
2.089296e+00 3.054555e+01
2.290868e+00 8.386896e+00
2.511886e+00 6.190517e+00
2.754229e+00 2.100226e+01
3.019952e+00 3.870186e+01
3.311311e+00 5.179334e+01
3.630781e+00 5.846927e+01
3.981072e+00 5.971898e+01
4.365158e+00 5.677834e+01
4.786301e+00 5.067639e+01
5.248075e+00 4.278008e+01
5.754399e+00 3.448878e+01
6.309573e+00 2.669879e+01
6.918310e+00 2.002365e+01
7.585776e+00 1.465419e+01
8.317638e+00 1.053953e+01
9.120108e+00 7.491378e+00
1.000000e+01 5.268679e+00
1.096478e+01 3.692822e+00
1.202264e+01 2.571367e+00
1.318257e+01 1.789690e+00
1.445440e+01 1.243704e+00
1.584893e+01 8.632344e-01
1.737801e+01 5.993114e-01
1.905461e+01 4.156034e-01
2.089296e+01 2.890519e-01
2.290868e+01 2.001466e-01
2.511886e+01 1.394391e-01
2.754229e+01 9.749502e-02
3.019952e+01 6.703867e-02
3.311311e+01 4.844867e-02
3.630781e+01 3.349780e-02
3.981072e+01 2.672083e-02
4.365158e+01 1.968889e-02
4.786301e+01 1.272882e-02
5.248075e+01 8.485096e-03
5.754399e+01 5.561368e-03
6.309573e+01 3.237242e-03
6.918310e+01 1.893074e-03
7.585776e+01 1.590895e-03
8.317638e+01 1.706292e-03
9.120108e+01 2.303061e-03
1.000000e+02 2.102524e-03
