% Model:              mtlcad_3D_model_FF11_comsol.mph
% Version:            COMSOL 5.0.0.244
% Date:               Dec 29 2024, 23:06
% Table:              Table 6 - Surface Integration 1 (sqrt(ewfd.Poavx^2+ewfd.Poavy^2+ewfd.Poavz^2))
% lambda (um)         freq=3.0000E14, sqrt(ewfd.Poavx^2+ewfd.Poavy^2+ewfd.Poavz^2) (W)
1.000000e-02 9.785064e+01
1.510143e-02 1.069644e+02
2.020285e-02 8.983209e+01
2.530428e-02 9.782821e+01
3.040571e-02 1.069828e+02
3.550713e-02 8.982465e+01
4.060856e-02 9.785290e+01
4.570998e-02 1.069633e+02
5.081141e-02 8.982780e+01
5.591284e-02 9.785192e+01
6.591284e-02 1.069722e+02
7.227199e-02 8.984391e+01
7.924466e-02 9.784258e+01
8.689004e-02 1.069754e+02
9.527304e-02 8.983744e+01
1.044648e-01 9.513540e+01
1.145434e-01 9.781875e+01
1.255943e-01 1.112975e+02
1.377114e-01 8.590129e+01
1.509976e-01 1.060857e+02
1.655656e-01 1.106533e+02
1.815390e-01 1.042203e+02
1.990536e-01 1.193659e+02
2.182579e-01 1.138778e+02
2.393150e-01 1.204460e+02
2.624037e-01 1.214880e+02
2.877200e-01 1.407580e+02
3.154787e-01 1.365477e+02
3.459155e-01 1.457956e+02
3.792888e-01 1.568297e+02
4.158819e-01 1.274599e+02
4.560054e-01 1.055468e+02
5.000000e-01 1.270381e+02
5.482391e-01 9.292516e+01
6.011322e-01 8.428229e+01
6.591284e-01 8.707432e+01
7.227199e-01 1.014919e+02
7.924466e-01 1.032421e+02
8.689004e-01 8.357110e+01
9.527304e-01 6.870053e+01
1.044648e+00 4.968497e+01
1.000000e+00 5.763943e+01
1.096478e+00 3.710682e+01
1.202264e+00 2.001905e+01
1.318257e+00 1.453266e+01
1.445440e+00 1.375008e+01
1.584893e+00 1.180819e+01
1.737801e+00 8.134627e+00
1.905461e+00 4.397088e+00
2.089296e+00 2.027274e+00
2.290868e+00 1.431056e+00
2.511886e+00 1.979484e+00
2.754229e+00 2.831776e+00
3.019952e+00 3.492280e+00
3.311311e+00 3.794911e+00
3.630781e+00 3.751678e+00
3.981072e+00 3.453447e+00
4.365158e+00 3.004313e+00
4.786301e+00 2.498970e+00
5.248075e+00 2.004546e+00
5.754399e+00 1.561019e+00
6.309573e+00 1.186970e+00
6.918310e+00 8.860647e-01
7.585776e+00 6.512691e-01
8.317638e+00 4.728808e-01
9.120108e+00 3.402699e-01
1.000000e+01 2.428233e-01
1.096478e+01 1.724054e-01
1.202264e+01 1.218057e-01
1.318257e+01 8.573750e-02
1.445440e+01 6.016245e-02
1.584893e+01 4.212185e-02
1.737801e+01 2.946520e-02
1.905461e+01 2.058452e-02
2.089296e+01 1.436196e-02
2.290868e+01 1.006057e-02
2.511886e+01 7.034187e-03
2.754229e+01 4.934742e-03
3.019952e+01 3.456802e-03
3.311311e+01 2.432277e-03
3.630781e+01 1.751760e-03
3.981072e+01 1.258834e-03
4.365158e+01 9.452598e-04
4.786301e+01 7.059131e-04
5.248075e+01 5.618237e-04
5.754399e+01 4.414353e-04
6.309573e+01 3.514442e-04
6.918310e+01 3.000759e-04
7.585776e+01 2.660251e-04
8.317638e+01 2.158747e-04
9.120108e+01 1.851244e-04
1.000000e+02 1.637718e-04
